
FAST Summary File

Predictions were generated on 20-Aug-2020 at 16:32:57 using OpenFAST, compiled as a 64-bit application using single precision at commit v2.3.0-699-gf2517ec6-dirty
  compiled with
    NWTC Subroutine Library
    ElastoDyn
    BeamDyn [not called]
    InflowWind
    AeroDyn14 [not called]
    AeroDyn
    ServoDyn
    HydroDyn [not called]
    SubDyn [not called]
    ExtPtfm_MCKF [not called]
    MAP [not called]
    FEAMooring [not called]
    MoorDyn [not called]
    OrcaFlexInterface [not called]
    IceFloe [not called]
    IceDyn [not called]


Modeling a land-based turbine
Description from the FAST input file: 
  Generated with AeroElasticSE FAST driver

Interpolation order for input/output time histories: 2 (quadratic)
Number of correction iterations:  0


   Requested Time Steps  
  -------------------------------------------------
  Component          Time Step (s)    Subcycles (-)
  -----------------  ---------------  -------------
  FAST (glue code)    1.000E-02
  InflowWind          1.000E-02              1
  ElastoDyn           1.000E-02              1
  AeroDyn             1.000E-02              1
  ServoDyn            1.000E-02              1
  FAST output files   1.000E-02              1


   Requested Channels in FAST Output File(s)  
  --------------------------------------------
  Number  Name                  Units                 Generated by
  ------  --------------------  --------------------  ------------
       1  Time                  (s)                   OpenFAST
       2  Wind1VelX             (m/s)                 InflowWind
       3  BldPitch1             (deg)                 ElastoDyn
       4  GenSpeed              (rpm)                 ElastoDyn
       5  HSSBrTq               (kN-m)                ElastoDyn
       6  HSShftTq              (kN-m)                ElastoDyn
       7  LSSTipMya             (kN-m)                ElastoDyn
       8  LSSTipMys             (kN-m)                ElastoDyn
       9  LSSTipMza             (kN-m)                ElastoDyn
      10  LSSTipMzs             (kN-m)                ElastoDyn
      11  LSSTipPxa             (deg)                 ElastoDyn
      12  LSShftFxa             (kN)                  ElastoDyn
      13  LSShftFya             (kN)                  ElastoDyn
      14  LSShftFys             (kN)                  ElastoDyn
      15  LSShftFza             (kN)                  ElastoDyn
      16  LSShftFzs             (kN)                  ElastoDyn
      17  LSShftMxa             (kN-m)                ElastoDyn
      18  NcIMUTAxs             (m/s^2)               ElastoDyn
      19  NcIMUTAys             (m/s^2)               ElastoDyn
      20  PtchPMzc1             (deg)                 ElastoDyn
      21  PtchPMzc2             (deg)                 ElastoDyn
      22  PtchPMzc3             (deg)                 ElastoDyn
      23  RootFxb1              (kN)                  ElastoDyn
      24  RootFxb2              (kN)                  ElastoDyn
      25  RootFxb3              (kN)                  ElastoDyn
      26  RootFxc1              (kN)                  ElastoDyn
      27  RootFxc2              (kN)                  ElastoDyn
      28  RootFxc3              (kN)                  ElastoDyn
      29  RootFyb1              (kN)                  ElastoDyn
      30  RootFyb2              (kN)                  ElastoDyn
      31  RootFyb3              (kN)                  ElastoDyn
      32  RootFyc1              (kN)                  ElastoDyn
      33  RootFyc2              (kN)                  ElastoDyn
      34  RootFyc3              (kN)                  ElastoDyn
      35  RootFzb1              (kN)                  ElastoDyn
      36  RootFzb2              (kN)                  ElastoDyn
      37  RootFzb3              (kN)                  ElastoDyn
      38  RootMxb1              (kN-m)                ElastoDyn
      39  RootMxb2              (kN-m)                ElastoDyn
      40  RootMxb3              (kN-m)                ElastoDyn
      41  RootMxc1              (kN-m)                ElastoDyn
      42  RootMxc2              (kN-m)                ElastoDyn
      43  RootMxc3              (kN-m)                ElastoDyn
      44  RootMyb1              (kN-m)                ElastoDyn
      45  RootMyb2              (kN-m)                ElastoDyn
      46  RootMyb3              (kN-m)                ElastoDyn
      47  RootMyc1              (kN-m)                ElastoDyn
      48  RootMyc2              (kN-m)                ElastoDyn
      49  RootMyc3              (kN-m)                ElastoDyn
      50  RootMzb1              (kN-m)                ElastoDyn
      51  RootMzb2              (kN-m)                ElastoDyn
      52  RootMzb3              (kN-m)                ElastoDyn
      53  RotSpeed              (rpm)                 ElastoDyn
      54  Spn1FLxb1             (kN)                  ElastoDyn
      55  Spn1FLyb1             (kN)                  ElastoDyn
      56  Spn1FLzb1             (kN)                  ElastoDyn
      57  Spn1MLxb1             (kN-m)                ElastoDyn
      58  Spn1MLyb1             (kN-m)                ElastoDyn
      59  Spn1MLzb1             (kN-m)                ElastoDyn
      60  Spn2FLxb1             (kN)                  ElastoDyn
      61  Spn2FLyb1             (kN)                  ElastoDyn
      62  Spn2FLzb1             (kN)                  ElastoDyn
      63  Spn2MLxb1             (kN-m)                ElastoDyn
      64  Spn2MLyb1             (kN-m)                ElastoDyn
      65  Spn2MLzb1             (kN-m)                ElastoDyn
      66  Spn3FLxb1             (kN)                  ElastoDyn
      67  Spn3FLyb1             (kN)                  ElastoDyn
      68  Spn3FLzb1             (kN)                  ElastoDyn
      69  Spn3MLxb1             (kN-m)                ElastoDyn
      70  Spn3MLyb1             (kN-m)                ElastoDyn
      71  Spn3MLzb1             (kN-m)                ElastoDyn
      72  Spn4FLxb1             (kN)                  ElastoDyn
      73  Spn4FLyb1             (kN)                  ElastoDyn
      74  Spn4FLzb1             (kN)                  ElastoDyn
      75  Spn4MLxb1             (kN-m)                ElastoDyn
      76  Spn4MLyb1             (kN-m)                ElastoDyn
      77  Spn4MLzb1             (kN-m)                ElastoDyn
      78  Spn5FLxb1             (kN)                  ElastoDyn
      79  Spn5FLyb1             (kN)                  ElastoDyn
      80  Spn5FLzb1             (kN)                  ElastoDyn
      81  Spn5MLxb1             (kN-m)                ElastoDyn
      82  Spn5MLyb1             (kN-m)                ElastoDyn
      83  Spn5MLzb1             (kN-m)                ElastoDyn
      84  Spn6FLxb1             (kN)                  ElastoDyn
      85  Spn6FLyb1             (kN)                  ElastoDyn
      86  Spn6FLzb1             (kN)                  ElastoDyn
      87  Spn6MLxb1             (kN-m)                ElastoDyn
      88  Spn6MLyb1             (kN-m)                ElastoDyn
      89  Spn6MLzb1             (kN-m)                ElastoDyn
      90  Spn7FLxb1             (kN)                  ElastoDyn
      91  Spn7FLyb1             (kN)                  ElastoDyn
      92  Spn7FLzb1             (kN)                  ElastoDyn
      93  Spn7MLxb1             (kN-m)                ElastoDyn
      94  Spn7MLyb1             (kN-m)                ElastoDyn
      95  Spn7MLzb1             (kN-m)                ElastoDyn
      96  Spn8FLxb1             (kN)                  ElastoDyn
      97  Spn8FLyb1             (kN)                  ElastoDyn
      98  Spn8FLzb1             (kN)                  ElastoDyn
      99  Spn8MLxb1             (kN-m)                ElastoDyn
     100  Spn8MLyb1             (kN-m)                ElastoDyn
     101  Spn8MLzb1             (kN-m)                ElastoDyn
     102  Spn9FLxb1             (kN)                  ElastoDyn
     103  Spn9FLyb1             (kN)                  ElastoDyn
     104  Spn9FLzb1             (kN)                  ElastoDyn
     105  Spn9MLxb1             (kN-m)                ElastoDyn
     106  Spn9MLyb1             (kN-m)                ElastoDyn
     107  Spn9MLzb1             (kN-m)                ElastoDyn
     108  TipClrnc1             (m)                   ElastoDyn
     109  TipClrnc2             (m)                   ElastoDyn
     110  TipClrnc3             (m)                   ElastoDyn
     111  TipDxb1               (m)                   ElastoDyn
     112  TipDxb2               (m)                   ElastoDyn
     113  TipDxb3               (m)                   ElastoDyn
     114  TipDxc1               (m)                   ElastoDyn
     115  TipDxc2               (m)                   ElastoDyn
     116  TipDxc3               (m)                   ElastoDyn
     117  TipDyb1               (m)                   ElastoDyn
     118  TipDyb2               (m)                   ElastoDyn
     119  TipDyb3               (m)                   ElastoDyn
     120  TipDyc1               (m)                   ElastoDyn
     121  TipDyc2               (m)                   ElastoDyn
     122  TipDyc3               (m)                   ElastoDyn
     123  TipDzb1               (m)                   ElastoDyn
     124  TipDzb2               (m)                   ElastoDyn
     125  TipDzb3               (m)                   ElastoDyn
     126  TipDzc1               (m)                   ElastoDyn
     127  TipDzc2               (m)                   ElastoDyn
     128  TipDzc3               (m)                   ElastoDyn
     129  TwrBsFxt              (kN)                  ElastoDyn
     130  TwrBsFyt              (kN)                  ElastoDyn
     131  TwrBsFzt              (kN)                  ElastoDyn
     132  TwrBsMxt              (kN-m)                ElastoDyn
     133  TwrBsMyt              (kN-m)                ElastoDyn
     134  TwrBsMzt              (kN-m)                ElastoDyn
     135  YawBrFxn              (kN)                  ElastoDyn
     136  YawBrFxp              (kN)                  ElastoDyn
     137  YawBrFyn              (kN)                  ElastoDyn
     138  YawBrFyp              (kN)                  ElastoDyn
     139  YawBrFzn              (kN)                  ElastoDyn
     140  YawBrMxn              (kN-m)                ElastoDyn
     141  YawBrMxp              (kN-m)                ElastoDyn
     142  YawBrMyn              (kN-m)                ElastoDyn
     143  YawBrMyp              (kN-m)                ElastoDyn
     144  YawBrMzn              (kN-m)                ElastoDyn
     145  YawBrTDxt             (m)                   ElastoDyn
     146  YawBrTDyt             (m)                   ElastoDyn
     147  YawPzn                (deg)                 ElastoDyn
     148  RtAeroCp              (-)                   AeroDyn
     149  RtAeroCq              (-)                   AeroDyn
     150  RtAeroCt              (-)                   AeroDyn
     151  RtAeroFxh             (N)                   AeroDyn
     152  RtAeroFyh             (N)                   AeroDyn
     153  RtAeroFzh             (N)                   AeroDyn
     154  RtAeroMxh             (N-m)                 AeroDyn
     155  RtAeroMyh             (N-m)                 AeroDyn
     156  RtAeroMzh             (N-m)                 AeroDyn
     157  RtAeroPwr             (W)                   AeroDyn
     158  RtArea                (m^2)                 AeroDyn
     159  RtSkew                (deg)                 AeroDyn
     160  RtSpeed               (rpm)                 AeroDyn
     161  RtTSR                 (-)                   AeroDyn
     162  RtVAvgxh              (m/s)                 AeroDyn
     163  RtVAvgyh              (m/s)                 AeroDyn
     164  RtVAvgzh              (m/s)                 AeroDyn
     165  GenPwr                (kW)                  ServoDyn
     166  GenTq                 (kN-m)                ServoDyn
     167  BLFLAP1               (-)                   ServoDyn
     168  BLFLAP2               (-)                   ServoDyn
     169  BLFLAP3               (-)                   ServoDyn
